23
Step displaced_structure_9
N -2.515509 0.840708 1.177063
H -1.567518 0.577511 0.916832
C -2.583478 2.227657 1.678233
H -2.810312 0.175218 1.886406
H -3.099799 0.677736 0.360388
C -1.695913 2.354524 2.905091
H -3.627434 2.451381 1.908167
H -2.262316 2.894267 0.874908
H -2.024772 1.686600 3.705653
H -0.652193 2.133599 2.666597
H -1.737060 3.373539 3.289210
H -1.941458 -0.650189 3.451816
C -2.099110 -0.292593 2.440079
C -3.394764 -0.188615 1.930672
H -4.243528 -0.464215 2.546970
C -3.595651 0.233833 0.615516
H -4.600195 0.285695 0.210417
C -2.501116 0.556074 -0.188434
H -2.655600 0.860325 -1.217553
C -1.205590 0.449826 0.320323
H -0.354793 0.670948 -0.314327
C -1.004472 0.023487 1.633890
H 0.002714 -0.087483 2.020040
