23
Step displaced_structure_7
N -2.515509 0.840708 1.177063
H -1.567518 0.577511 0.916832
C -2.583478 2.227657 1.678233
H -2.810312 0.175218 1.886406
H -3.099799 0.677736 0.360388
C -1.695913 2.354524 2.905091
H -3.627434 2.451381 1.908167
H -2.262316 2.894267 0.874908
H -2.024772 1.686600 3.705653
H -0.652193 2.133599 2.666597
H -1.737060 3.373539 3.289210
H -1.955632 -1.007862 3.273298
C -2.113285 -0.650267 2.261560
C -3.408939 -0.546289 1.752154
H -4.257703 -0.821888 2.368451
C -3.609826 -0.123840 0.436998
H -4.614369 -0.071978 0.031899
C -2.515290 0.198400 -0.366953
H -2.669775 0.502651 -1.396072
C -1.219765 0.092152 0.141804
H -0.368968 0.313275 -0.492845
C -1.018647 -0.334186 1.455371
H -0.011461 -0.445157 1.841522
