23
Step displaced_structure_46
N -2.515509 0.840708 1.177063
H -1.567518 0.577511 0.916832
C -2.583478 2.227657 1.678233
H -2.810312 0.175218 1.886406
H -3.099799 0.677736 0.360388
C -1.695913 2.354524 2.905091
H -3.627434 2.451381 1.908167
H -2.262316 2.894267 0.874908
H -2.024772 1.686600 3.705653
H -0.652193 2.133599 2.666597
H -1.737060 3.373539 3.289210
H -1.679223 5.966768 6.754408
C -1.836875 6.324364 5.742671
C -3.132530 6.428342 5.233264
H -3.981294 6.152742 5.849562
C -3.333417 6.850790 3.918108
H -4.337960 6.902652 3.513009
C -2.238881 7.173031 3.114157
H -2.393365 7.477282 2.085038
C -0.943356 7.066783 3.622914
H -0.092558 7.287905 2.988265
C -0.742237 6.640444 4.936482
H 0.264949 6.529474 5.322632
