23
Step displaced_structure_43
N -2.515509 0.840708 1.177063
H -1.567518 0.577511 0.916832
C -2.583478 2.227657 1.678233
H -2.810312 0.175218 1.886406
H -3.099799 0.677736 0.360388
C -1.695913 2.354524 2.905091
H -3.627434 2.451381 1.908167
H -2.262316 2.894267 0.874908
H -2.024772 1.686600 3.705653
H -0.652193 2.133599 2.666597
H -1.737060 3.373539 3.289210
H -1.700485 5.430258 6.486630
C -1.858138 5.787854 5.474893
C -3.153792 5.891832 4.965486
H -4.002556 5.616232 5.581784
C -3.354679 6.314280 3.650330
H -4.359222 6.366142 3.245231
C -2.260143 6.636521 2.846380
H -2.414627 6.940772 1.817261
C -0.964618 6.530273 3.355137
H -0.113820 6.751395 2.720487
C -0.763499 6.103934 4.668704
H 0.243687 5.992964 5.054854
