23
Step displaced_structure_40
N -2.515509 0.840708 1.177063
H -1.567518 0.577511 0.916832
C -2.583478 2.227657 1.678233
H -2.810312 0.175218 1.886406
H -3.099799 0.677736 0.360388
C -1.695913 2.354524 2.905091
H -3.627434 2.451381 1.908167
H -2.262316 2.894267 0.874908
H -2.024772 1.686600 3.705653
H -0.652193 2.133599 2.666597
H -1.737060 3.373539 3.289210
H -1.721747 4.893748 6.218852
C -1.879400 5.251344 5.207115
C -3.175054 5.355322 4.697709
H -4.023818 5.079722 5.314006
C -3.375941 5.777770 3.382552
H -4.380484 5.829632 2.977453
C -2.281405 6.100011 2.578602
H -2.435890 6.404262 1.549483
C -0.985880 5.993763 3.087359
H -0.135082 6.214885 2.452710
C -0.784762 5.567424 4.400926
H 0.222424 5.456454 4.787076
