23
Step displaced_structure_21
N -2.515509 0.840708 1.177063
H -1.567518 0.577511 0.916832
C -2.583478 2.227657 1.678233
H -2.810312 0.175218 1.886406
H -3.099799 0.677736 0.360388
C -1.695913 2.354524 2.905091
H -3.627434 2.451381 1.908167
H -2.262316 2.894267 0.874908
H -2.024772 1.686600 3.705653
H -0.652193 2.133599 2.666597
H -1.737060 3.373539 3.289210
H -1.856408 1.495851 4.522927
C -2.014061 1.853447 3.511190
C -3.309715 1.957425 3.001783
H -4.158479 1.681825 3.618081
C -3.510602 2.379873 1.686627
H -4.515145 2.431735 1.281528
C -2.416066 2.702114 0.882677
H -2.570551 3.006365 -0.146442
C -1.120541 2.595866 1.391434
H -0.269744 2.816988 0.756784
C -0.919423 2.169527 2.705001
H 0.087763 2.058557 3.091151
