23
Step displaced_structure_48
N -2.515509 0.840708 1.177063
H -1.567518 0.577511 0.916832
C -2.583478 2.227657 1.678233
H -2.810312 0.175218 1.886406
H -3.099799 0.677736 0.360388
C -1.695913 2.354524 2.905091
H -3.627434 2.451381 1.908167
H -2.262316 2.894267 0.874908
H -2.024772 1.686600 3.705653
H -0.652193 2.133599 2.666597
H -1.737060 3.373539 3.289210
H -1.665048 6.324441 6.932926
C -1.822701 6.682037 5.921189
C -3.118355 6.786015 5.411783
H -3.967119 6.510415 6.028080
C -3.319242 7.208463 4.096626
H -4.323785 7.260326 3.691527
C -2.224706 7.530704 3.292676
H -2.379190 7.834955 2.263557
C -0.929181 7.424456 3.801433
H -0.078383 7.645578 3.166784
C -0.728062 6.998117 5.115000
H 0.279124 6.887147 5.501150
