23
Step displaced_structure_31
N -2.515509 0.840708 1.177063
H -1.567518 0.577511 0.916832
C -2.583478 2.227657 1.678233
H -2.810312 0.175218 1.886406
H -3.099799 0.677736 0.360388
C -1.695913 2.354524 2.905091
H -3.627434 2.451381 1.908167
H -2.262316 2.894267 0.874908
H -2.024772 1.686600 3.705653
H -0.652193 2.133599 2.666597
H -1.737060 3.373539 3.289210
H -1.785534 3.284218 5.415519
C -1.943187 3.641814 4.403782
C -3.238841 3.745791 3.894376
H -4.087605 3.470192 4.510673
C -3.439728 4.168240 2.579219
H -4.444271 4.220102 2.174120
C -2.345192 4.490481 1.775269
H -2.499677 4.794731 0.746150
C -1.049667 4.384233 2.284026
H -0.198869 4.605355 1.649377
C -0.848549 3.957894 3.597593
H 0.158638 3.846923 3.983743
