23
Step displaced_structure_34
N -2.515509 0.840708 1.177063
H -1.567518 0.577511 0.916832
C -2.583478 2.227657 1.678233
H -2.810312 0.175218 1.886406
H -3.099799 0.677736 0.360388
C -1.695913 2.354524 2.905091
H -3.627434 2.451381 1.908167
H -2.262316 2.894267 0.874908
H -2.024772 1.686600 3.705653
H -0.652193 2.133599 2.666597
H -1.737060 3.373539 3.289210
H -1.764272 3.820728 5.683297
C -1.921924 4.178324 4.671560
C -3.217579 4.282302 4.162153
H -4.066343 4.006702 4.778451
C -3.418466 4.704750 2.846997
H -4.423009 4.756612 2.441898
C -2.323930 5.026991 2.043047
H -2.478414 5.331242 1.013928
C -1.028405 4.920743 2.551804
H -0.177607 5.141865 1.917154
C -0.827286 4.494404 3.865371
H 0.179900 4.383434 4.251521
