23
Step displaced_structure_24
N -2.515509 0.840708 1.177063
H -1.567518 0.577511 0.916832
C -2.583478 2.227657 1.678233
H -2.810312 0.175218 1.886406
H -3.099799 0.677736 0.360388
C -1.695913 2.354524 2.905091
H -3.627434 2.451381 1.908167
H -2.262316 2.894267 0.874908
H -2.024772 1.686600 3.705653
H -0.652193 2.133599 2.666597
H -1.737060 3.373539 3.289210
H -1.835146 2.032361 4.790705
C -1.992799 2.389957 3.778967
C -3.288453 2.493935 3.269561
H -4.137217 2.218335 3.885858
C -3.489340 2.916383 1.954405
H -4.493883 2.968245 1.549306
C -2.394804 3.238624 1.150454
H -2.549289 3.542875 0.121335
C -1.099279 3.132376 1.659211
H -0.248481 3.353498 1.024562
C -0.898161 2.706037 2.972778
H 0.109026 2.595067 3.358929
