23
Step displaced_structure_14
N -2.515509 0.840708 1.177063
H -1.567518 0.577511 0.916832
C -2.583478 2.227657 1.678233
H -2.810312 0.175218 1.886406
H -3.099799 0.677736 0.360388
C -1.695913 2.354524 2.905091
H -3.627434 2.451381 1.908167
H -2.262316 2.894267 0.874908
H -2.024772 1.686600 3.705653
H -0.652193 2.133599 2.666597
H -1.737060 3.373539 3.289210
H -1.906020 0.243994 3.898112
C -2.063673 0.601590 2.886375
C -3.359327 0.705568 2.376969
H -4.208091 0.429968 2.993266
C -3.560214 1.128016 1.061812
H -4.564757 1.179879 0.656713
C -2.465678 1.450257 0.257862
H -2.620163 1.754508 -0.771257
C -1.170153 1.344009 0.766619
H -0.319356 1.565131 0.131970
C -0.969035 0.917670 2.080186
H 0.038151 0.806700 2.466336
