23
Step displaced_structure_41
N -2.515509 0.840708 1.177063
H -1.567518 0.577511 0.916832
C -2.583478 2.227657 1.678233
H -2.810312 0.175218 1.886406
H -3.099799 0.677736 0.360388
C -1.695913 2.354524 2.905091
H -3.627434 2.451381 1.908167
H -2.262316 2.894267 0.874908
H -2.024772 1.686600 3.705653
H -0.652193 2.133599 2.666597
H -1.737060 3.373539 3.289210
H -1.714660 5.072585 6.308112
C -1.872313 5.430180 5.296374
C -3.167967 5.534158 4.786968
H -4.016731 5.258559 5.403265
C -3.368854 5.956607 3.471812
H -4.373397 6.008469 3.066713
C -2.274318 6.278847 2.667861
H -2.428802 6.583098 1.638742
C -0.978793 6.172599 3.176618
H -0.127995 6.393722 2.541969
C -0.777674 5.746261 4.490185
H 0.229512 5.635290 4.876336
