23
Step displaced_structure_18
N -2.515509 0.840708 1.177063
H -1.567518 0.577511 0.916832
C -2.583478 2.227657 1.678233
H -2.810312 0.175218 1.886406
H -3.099799 0.677736 0.360388
C -1.695913 2.354524 2.905091
H -3.627434 2.451381 1.908167
H -2.262316 2.894267 0.874908
H -2.024772 1.686600 3.705653
H -0.652193 2.133599 2.666597
H -1.737060 3.373539 3.289210
H -1.877671 0.959341 4.255149
C -2.035323 1.316937 3.243412
C -3.330978 1.420915 2.734006
H -4.179742 1.145315 3.350303
C -3.531865 1.843363 1.418849
H -4.536408 1.895225 1.013750
C -2.437329 2.165604 0.614899
H -2.591813 2.469855 -0.414220
C -1.141804 2.059356 1.123656
H -0.291006 2.280478 0.489006
C -0.940685 1.633017 2.437223
H 0.066501 1.522047 2.823373
