23
Step displaced_structure_44
N -2.515509 0.840708 1.177063
H -1.567518 0.577511 0.916832
C -2.583478 2.227657 1.678233
H -2.810312 0.175218 1.886406
H -3.099799 0.677736 0.360388
C -1.695913 2.354524 2.905091
H -3.627434 2.451381 1.908167
H -2.262316 2.894267 0.874908
H -2.024772 1.686600 3.705653
H -0.652193 2.133599 2.666597
H -1.737060 3.373539 3.289210
H -1.693398 5.609095 6.575889
C -1.851050 5.966690 5.564152
C -3.146704 6.070668 5.054746
H -3.995468 5.795069 5.671043
C -3.347591 6.493117 3.739589
H -4.352135 6.544979 3.334490
C -2.253056 6.815357 2.935639
H -2.407540 7.119608 1.906520
C -0.957531 6.709109 3.444396
H -0.106733 6.930232 2.809747
C -0.756412 6.282771 4.757963
H 0.250774 6.171800 5.144113
