23
Step displaced_structure_11
N -2.515509 0.840708 1.177063
H -1.567518 0.577511 0.916832
C -2.583478 2.227657 1.678233
H -2.810312 0.175218 1.886406
H -3.099799 0.677736 0.360388
C -1.695913 2.354524 2.905091
H -3.627434 2.451381 1.908167
H -2.262316 2.894267 0.874908
H -2.024772 1.686600 3.705653
H -0.652193 2.133599 2.666597
H -1.737060 3.373539 3.289210
H -1.927283 -0.292516 3.630335
C -2.084935 0.065080 2.618597
C -3.380590 0.169058 2.109191
H -4.229354 -0.106542 2.725488
C -3.581477 0.591506 0.794035
H -4.586020 0.643369 0.388936
C -2.486941 0.913747 -0.009916
H -2.641425 1.217998 -1.039035
C -1.191416 0.807499 0.498841
H -0.340618 1.028621 -0.135808
C -0.990297 0.381160 1.812408
H 0.016889 0.270190 2.198559
