23
Step displaced_structure_16
N -2.515509 0.840708 1.177063
H -1.567518 0.577511 0.916832
C -2.583478 2.227657 1.678233
H -2.810312 0.175218 1.886406
H -3.099799 0.677736 0.360388
C -1.695913 2.354524 2.905091
H -3.627434 2.451381 1.908167
H -2.262316 2.894267 0.874908
H -2.024772 1.686600 3.705653
H -0.652193 2.133599 2.666597
H -1.737060 3.373539 3.289210
H -1.891846 0.601668 4.076631
C -2.049498 0.959263 3.064894
C -3.345152 1.063241 2.555487
H -4.193916 0.787642 3.171785
C -3.546039 1.485690 1.240331
H -4.550583 1.537552 0.835232
C -2.451504 1.807930 0.436380
H -2.605988 2.112181 -0.592739
C -1.155978 1.701682 0.945137
H -0.305181 1.922805 0.310488
C -0.954860 1.275344 2.258705
H 0.052326 1.164373 2.644855
