23
Step displaced_structure_19
N -2.515509 0.840708 1.177063
H -1.567518 0.577511 0.916832
C -2.583478 2.227657 1.678233
H -2.810312 0.175218 1.886406
H -3.099799 0.677736 0.360388
C -1.695913 2.354524 2.905091
H -3.627434 2.451381 1.908167
H -2.262316 2.894267 0.874908
H -2.024772 1.686600 3.705653
H -0.652193 2.133599 2.666597
H -1.737060 3.373539 3.289210
H -1.870583 1.138178 4.344408
C -2.028236 1.495774 3.332671
C -3.323890 1.599751 2.823265
H -4.172654 1.324152 3.439562
C -3.524777 2.022200 1.508109
H -4.529320 2.074062 1.103009
C -2.430241 2.344440 0.704158
H -2.584726 2.648691 -0.324961
C -1.134716 2.238192 1.212915
H -0.283918 2.459315 0.578266
C -0.933598 1.811854 2.526482
H 0.073588 1.700883 2.912632
