23
Step displaced_structure_38
N -2.515509 0.840708 1.177063
H -1.567518 0.577511 0.916832
C -2.583478 2.227657 1.678233
H -2.810312 0.175218 1.886406
H -3.099799 0.677736 0.360388
C -1.695913 2.354524 2.905091
H -3.627434 2.451381 1.908167
H -2.262316 2.894267 0.874908
H -2.024772 1.686600 3.705653
H -0.652193 2.133599 2.666597
H -1.737060 3.373539 3.289210
H -1.735922 4.536075 6.040334
C -1.893575 4.893670 5.028597
C -3.189229 4.997648 4.519190
H -4.037993 4.722049 5.135488
C -3.390116 5.420097 3.204034
H -4.394659 5.471959 2.798935
C -2.295580 5.742337 2.400084
H -2.450065 6.046588 1.370965
C -1.000055 5.636089 2.908841
H -0.149257 5.857212 2.274191
C -0.798937 5.209751 4.222408
H 0.208250 5.098780 4.608558
