23
Step displaced_structure_30
N -2.515509 0.840708 1.177063
H -1.567518 0.577511 0.916832
C -2.583478 2.227657 1.678233
H -2.810312 0.175218 1.886406
H -3.099799 0.677736 0.360388
C -1.695913 2.354524 2.905091
H -3.627434 2.451381 1.908167
H -2.262316 2.894267 0.874908
H -2.024772 1.686600 3.705653
H -0.652193 2.133599 2.666597
H -1.737060 3.373539 3.289210
H -1.792622 3.105381 5.326260
C -1.950274 3.462977 4.314523
C -3.245928 3.566955 3.805116
H -4.094692 3.291355 4.421414
C -3.446815 3.989403 2.489960
H -4.451359 4.041265 2.084861
C -2.352280 4.311644 1.686010
H -2.506764 4.615895 0.656891
C -1.056754 4.205396 2.194767
H -0.205957 4.426518 1.560117
C -0.855636 3.779057 3.508334
H 0.151550 3.668087 3.894484
