23
Step displaced_structure_15
N -2.515509 0.840708 1.177063
H -1.567518 0.577511 0.916832
C -2.583478 2.227657 1.678233
H -2.810312 0.175218 1.886406
H -3.099799 0.677736 0.360388
C -1.695913 2.354524 2.905091
H -3.627434 2.451381 1.908167
H -2.262316 2.894267 0.874908
H -2.024772 1.686600 3.705653
H -0.652193 2.133599 2.666597
H -1.737060 3.373539 3.289210
H -1.898933 0.422831 3.987371
C -2.056586 0.780427 2.975634
C -3.352240 0.884405 2.466228
H -4.201004 0.608805 3.082525
C -3.553127 1.306853 1.151072
H -4.557670 1.358715 0.745972
C -2.458591 1.629094 0.347121
H -2.613075 1.933345 -0.681998
C -1.163066 1.522846 0.855878
H -0.312268 1.743968 0.221229
C -0.961947 1.096507 2.169445
H 0.045239 0.985537 2.555595
