23
Step displaced_structure_1
N -2.515509 0.840708 1.177063
H -1.567518 0.577511 0.916832
C -2.583478 2.227657 1.678233
H -2.810312 0.175218 1.886406
H -3.099799 0.677736 0.360388
C -1.695913 2.354524 2.905091
H -3.627434 2.451381 1.908167
H -2.262316 2.894267 0.874908
H -2.024772 1.686600 3.705653
H -0.652193 2.133599 2.666597
H -1.737060 3.373539 3.289210
H -1.998157 -2.080883 2.737742
C -2.155810 -1.723287 1.726005
C -3.451464 -1.619309 1.216599
H -4.300228 -1.894908 1.832896
C -3.652351 -1.196861 -0.098558
H -4.656894 -1.144998 -0.503657
C -2.557815 -0.874620 -0.902508
H -2.712299 -0.570369 -1.931627
C -1.262290 -0.980868 -0.393751
H -0.411492 -0.759746 -1.028401
C -1.061171 -1.407206 0.919816
H -0.053985 -1.518177 1.305966
