23
Step displaced_structure_27
N -2.515509 0.840708 1.177063
H -1.567518 0.577511 0.916832
C -2.583478 2.227657 1.678233
H -2.810312 0.175218 1.886406
H -3.099799 0.677736 0.360388
C -1.695913 2.354524 2.905091
H -3.627434 2.451381 1.908167
H -2.262316 2.894267 0.874908
H -2.024772 1.686600 3.705653
H -0.652193 2.133599 2.666597
H -1.737060 3.373539 3.289210
H -1.813884 2.568871 5.058482
C -1.971536 2.926467 4.046745
C -3.267191 3.030445 3.537339
H -4.115955 2.754845 4.153636
C -3.468078 3.452893 2.222182
H -4.472621 3.504755 1.817083
C -2.373542 3.775134 1.418232
H -2.528026 4.079385 0.389113
C -1.078017 3.668886 1.926989
H -0.227219 3.890008 1.292340
C -0.876898 3.242547 3.240556
H 0.130288 3.131577 3.626706
