23
Step displaced_structure_36
N -2.515509 0.840708 1.177063
H -1.567518 0.577511 0.916832
C -2.583478 2.227657 1.678233
H -2.810312 0.175218 1.886406
H -3.099799 0.677736 0.360388
C -1.695913 2.354524 2.905091
H -3.627434 2.451381 1.908167
H -2.262316 2.894267 0.874908
H -2.024772 1.686600 3.705653
H -0.652193 2.133599 2.666597
H -1.737060 3.373539 3.289210
H -1.750097 4.178401 5.861815
C -1.907750 4.535997 4.850078
C -3.203404 4.639975 4.340672
H -4.052168 4.364375 4.956969
C -3.404291 5.062423 3.025516
H -4.408834 5.114286 2.620416
C -2.309755 5.384664 2.221565
H -2.464239 5.688915 1.192446
C -1.014230 5.278416 2.730322
H -0.163432 5.499538 2.095673
C -0.813111 4.852077 4.043889
H 0.194075 4.741107 4.430039
