23
Step displaced_structure_35
N -2.515509 0.840708 1.177063
H -1.567518 0.577511 0.916832
C -2.583478 2.227657 1.678233
H -2.810312 0.175218 1.886406
H -3.099799 0.677736 0.360388
C -1.695913 2.354524 2.905091
H -3.627434 2.451381 1.908167
H -2.262316 2.894267 0.874908
H -2.024772 1.686600 3.705653
H -0.652193 2.133599 2.666597
H -1.737060 3.373539 3.289210
H -1.757184 3.999565 5.772556
C -1.914837 4.357160 4.760819
C -3.210491 4.461138 4.251413
H -4.059255 4.185539 4.867710
C -3.411378 4.883586 2.936256
H -4.415921 4.935449 2.531157
C -2.316842 5.205827 2.132306
H -2.471327 5.510078 1.103187
C -1.021317 5.099579 2.641063
H -0.170520 5.320702 2.006413
C -0.820199 4.673241 3.954630
H 0.186987 4.562270 4.340780
