23
Step displaced_structure_26
N -2.515509 0.840708 1.177063
H -1.567518 0.577511 0.916832
C -2.583478 2.227657 1.678233
H -2.810312 0.175218 1.886406
H -3.099799 0.677736 0.360388
C -1.695913 2.354524 2.905091
H -3.627434 2.451381 1.908167
H -2.262316 2.894267 0.874908
H -2.024772 1.686600 3.705653
H -0.652193 2.133599 2.666597
H -1.737060 3.373539 3.289210
H -1.820971 2.390034 4.969223
C -1.978624 2.747630 3.957486
C -3.274278 2.851608 3.448079
H -4.123042 2.576009 4.064377
C -3.475165 3.274056 2.132923
H -4.479708 3.325919 1.727824
C -2.380629 3.596297 1.328973
H -2.535114 3.900548 0.299854
C -1.085104 3.490049 1.837730
H -0.234306 3.711171 1.203080
C -0.883986 3.063711 3.151297
H 0.123200 2.952740 3.537447
