23
Step displaced_structure_2
N -2.515509 0.840708 1.177063
H -1.567518 0.577511 0.916832
C -2.583478 2.227657 1.678233
H -2.810312 0.175218 1.886406
H -3.099799 0.677736 0.360388
C -1.695913 2.354524 2.905091
H -3.627434 2.451381 1.908167
H -2.262316 2.894267 0.874908
H -2.024772 1.686600 3.705653
H -0.652193 2.133599 2.666597
H -1.737060 3.373539 3.289210
H -1.991070 -1.902046 2.827001
C -2.148722 -1.544450 1.815264
C -3.444376 -1.440472 1.305858
H -4.293140 -1.716072 1.922155
C -3.645263 -1.018024 -0.009298
H -4.649807 -0.966162 -0.414398
C -2.550728 -0.695783 -0.813249
H -2.705212 -0.391532 -1.842368
C -1.255202 -0.802031 -0.304492
H -0.404405 -0.580909 -0.939141
C -1.054084 -1.228370 1.009075
H -0.046898 -1.339340 1.395225
