23
Step displaced_structure_12
N -2.515509 0.840708 1.177063
H -1.567518 0.577511 0.916832
C -2.583478 2.227657 1.678233
H -2.810312 0.175218 1.886406
H -3.099799 0.677736 0.360388
C -1.695913 2.354524 2.905091
H -3.627434 2.451381 1.908167
H -2.262316 2.894267 0.874908
H -2.024772 1.686600 3.705653
H -0.652193 2.133599 2.666597
H -1.737060 3.373539 3.289210
H -1.920195 -0.113679 3.719594
C -2.077848 0.243917 2.707857
C -3.373502 0.347895 2.198450
H -4.222266 0.072295 2.814748
C -3.574389 0.770343 0.883294
H -4.578932 0.822205 0.478195
C -2.479853 1.092584 0.079343
H -2.634338 1.396835 -0.949776
C -1.184328 0.986336 0.588100
H -0.333530 1.207458 -0.046549
C -0.983210 0.559997 1.901668
H 0.023976 0.449027 2.287818
