23
Step displaced_structure_3
N -2.515509 0.840708 1.177063
H -1.567518 0.577511 0.916832
C -2.583478 2.227657 1.678233
H -2.810312 0.175218 1.886406
H -3.099799 0.677736 0.360388
C -1.695913 2.354524 2.905091
H -3.627434 2.451381 1.908167
H -2.262316 2.894267 0.874908
H -2.024772 1.686600 3.705653
H -0.652193 2.133599 2.666597
H -1.737060 3.373539 3.289210
H -1.983982 -1.723209 2.916261
C -2.141635 -1.365613 1.904523
C -3.437289 -1.261636 1.395117
H -4.286053 -1.537235 2.011415
C -3.638176 -0.839187 0.079961
H -4.642719 -0.787325 -0.325138
C -2.543640 -0.516946 -0.723990
H -2.698125 -0.212695 -1.753109
C -1.248115 -0.623194 -0.215233
H -0.397317 -0.402072 -0.849882
C -1.046997 -1.049533 1.098334
H -0.039810 -1.160504 1.484485
