56
Step displaced_structure_11
O 1.850560 -3.653990 -14.423540
C -1.008670 -3.169080 -13.283250
H 2.411980 -2.204610 -16.880880
H 3.347650 -1.945500 -17.387560
C 2.396910 -3.295320 -16.817840
C 2.425200 -1.577840 -15.500330
H 2.687910 -0.213480 -15.396870
C 2.989680 0.340510 -16.281640
H 2.578490 0.434380 -14.177230
C 2.828220 1.489290 -14.106220
H 2.145610 -0.241680 -13.063790
C 2.021090 0.280440 -12.119360
C 1.856680 -1.621100 -13.122410
H 1.264420 -2.285210 -11.895540
H 1.234720 -3.366270 -12.050400
C 1.916740 -2.092610 -11.037420
C -0.116080 -1.769890 -11.586620
H -0.347260 -0.745040 -10.662490
C 0.489680 -0.377560 -10.076140
H -1.616230 -0.222150 -10.475300
C -1.782860 0.555590 -9.737550
H -2.672820 -0.719040 -11.207530
C -3.672840 -0.326530 -11.040410
C -2.507590 -1.750850 -12.130520
C -1.211050 -2.266060 -12.345840
O 2.066140 -2.262710 -14.334330
O -3.056170 -3.701430 -15.435080
C -0.207160 -3.157130 -16.574120
H -3.646180 -2.269460 -12.974240
H -4.585580 -2.029120 -12.465360
C -3.630860 -3.362890 -13.041520
C -3.671860 -1.639710 -14.353260
H -3.961600 -0.280590 -14.453400
C -4.266390 0.262350 -13.563890
H -3.865080 0.372270 -15.671460
C -4.134660 1.421990 -15.741030
H -3.418890 -0.292360 -16.786520
C -3.301760 0.233850 -17.729150
C -3.102660 -1.665910 -16.731260
H -2.497360 -2.315160 -17.959720
H -2.479070 -3.407000 -17.864620
C -3.148880 -2.116050 -18.817370
C -1.127370 -1.771810 -18.267350
H -0.916580 -0.740330 -19.188980
C -1.757760 -0.382930 -19.776330
H 0.341760 -0.191920 -19.374880
C 0.490230 0.591440 -20.110410
H 1.408020 -0.669520 -18.643830
C 2.402090 -0.261850 -18.804950
C 1.263310 -1.706650 -17.723360
C -0.022750 -2.248000 -17.509320
C: -3.299320 -2.314490 -15.520900
H 1.256940 -3.815710 -15.168790
H -1.834410 -3.509840 -13.656750
H -3.799970 -4.185890 -15.813400
O -0.165447 0.791566 -15.912818
