23
Step displaced_structure_8
N -2.515509 0.840708 1.177063
H -1.567518 0.577511 0.916832
C -2.583478 2.227657 1.678233
H -2.810312 0.175218 1.886406
H -3.099799 0.677736 0.360388
C -1.695913 2.354524 2.905091
H -3.627434 2.451381 1.908167
H -2.262316 2.894267 0.874908
H -2.024772 1.686600 3.705653
H -0.652193 2.133599 2.666597
H -1.737060 3.373539 3.289210
H -1.948545 -0.829026 3.362557
C -2.106198 -0.471430 2.350820
C -3.401852 -0.367452 1.841413
H -4.250616 -0.643052 2.457711
C -3.602739 0.054996 0.526257
H -4.607282 0.106859 0.121158
C -2.508203 0.377237 -0.277694
H -2.662687 0.681488 -1.306812
C -1.212678 0.270989 0.231064
H -0.361880 0.492111 -0.403586
C -1.011559 -0.155350 1.544631
H -0.004373 -0.266320 1.930781
