23
Step displaced_structure_5
N -2.515509 0.840708 1.177063
H -1.567518 0.577511 0.916832
C -2.583478 2.227657 1.678233
H -2.810312 0.175218 1.886406
H -3.099799 0.677736 0.360388
C -1.695913 2.354524 2.905091
H -3.627434 2.451381 1.908167
H -2.262316 2.894267 0.874908
H -2.024772 1.686600 3.705653
H -0.652193 2.133599 2.666597
H -1.737060 3.373539 3.289210
H -1.969807 -1.365536 3.094779
C -2.127460 -1.007940 2.083042
C -3.423114 -0.903962 1.573635
H -4.271878 -1.179562 2.189933
C -3.624001 -0.481514 0.258479
H -4.628544 -0.429651 -0.146620
C -2.529465 -0.159273 -0.545471
H -2.683950 0.144978 -1.574590
C -1.233940 -0.265521 -0.036714
H -0.383142 -0.044399 -0.671364
C -1.032822 -0.691860 1.276853
H -0.025636 -0.802830 1.663003
