23
Step displaced_structure_33
N -2.515509 0.840708 1.177063
H -1.567518 0.577511 0.916832
C -2.583478 2.227657 1.678233
H -2.810312 0.175218 1.886406
H -3.099799 0.677736 0.360388
C -1.695913 2.354524 2.905091
H -3.627434 2.451381 1.908167
H -2.262316 2.894267 0.874908
H -2.024772 1.686600 3.705653
H -0.652193 2.133599 2.666597
H -1.737060 3.373539 3.289210
H -1.771359 3.641891 5.594038
C -1.929012 3.999487 4.582301
C -3.224666 4.103465 4.072894
H -4.073430 3.827865 4.689192
C -3.425553 4.525913 2.757738
H -4.430096 4.577776 2.352639
C -2.331017 4.848154 1.953787
H -2.485502 5.152405 0.924668
C -1.035492 4.741906 2.462544
H -0.184694 4.963028 1.827895
C -0.834374 4.315567 3.776112
H 0.172812 4.204597 4.162262
