23
Step displaced_structure_22
N -2.515509 0.840708 1.177063
H -1.567518 0.577511 0.916832
C -2.583478 2.227657 1.678233
H -2.810312 0.175218 1.886406
H -3.099799 0.677736 0.360388
C -1.695913 2.354524 2.905091
H -3.627434 2.451381 1.908167
H -2.262316 2.894267 0.874908
H -2.024772 1.686600 3.705653
H -0.652193 2.133599 2.666597
H -1.737060 3.373539 3.289210
H -1.849321 1.674688 4.612186
C -2.006974 2.032284 3.600449
C -3.302628 2.136261 3.091042
H -4.151392 1.860662 3.707340
C -3.503515 2.558710 1.775886
H -4.508058 2.610572 1.370787
C -2.408979 2.880950 0.971936
H -2.563463 3.185201 -0.057183
C -1.113454 2.774702 1.480693
H -0.262656 2.995825 0.846043
C -0.912335 2.348364 2.794260
H 0.094851 2.237393 3.180410
