23
Step displaced_structure_20
N -2.515509 0.840708 1.177063
H -1.567518 0.577511 0.916832
C -2.583478 2.227657 1.678233
H -2.810312 0.175218 1.886406
H -3.099799 0.677736 0.360388
C -1.695913 2.354524 2.905091
H -3.627434 2.451381 1.908167
H -2.262316 2.894267 0.874908
H -2.024772 1.686600 3.705653
H -0.652193 2.133599 2.666597
H -1.737060 3.373539 3.289210
H -1.863496 1.317014 4.433668
C -2.021148 1.674610 3.421930
C -3.316803 1.778588 2.912524
H -4.165567 1.502988 3.528822
C -3.517690 2.201036 1.597368
H -4.522233 2.252899 1.192269
C -2.423154 2.523277 0.793417
H -2.577638 2.827528 -0.235702
C -1.127629 2.417029 1.302174
H -0.276831 2.638151 0.667525
C -0.926510 1.990690 2.615741
H 0.080676 1.879720 3.001892
