23
Step displaced_structure_17
N -2.515509 0.840708 1.177063
H -1.567518 0.577511 0.916832
C -2.583478 2.227657 1.678233
H -2.810312 0.175218 1.886406
H -3.099799 0.677736 0.360388
C -1.695913 2.354524 2.905091
H -3.627434 2.451381 1.908167
H -2.262316 2.894267 0.874908
H -2.024772 1.686600 3.705653
H -0.652193 2.133599 2.666597
H -1.737060 3.373539 3.289210
H -1.884758 0.780504 4.165890
C -2.042411 1.138100 3.154153
C -3.338065 1.242078 2.644746
H -4.186829 0.966478 3.261044
C -3.538952 1.664526 1.329590
H -4.543495 1.716389 0.924491
C -2.444416 1.986767 0.525640
H -2.598901 2.291018 -0.503479
C -1.148891 1.880519 1.034397
H -0.298093 2.101641 0.399747
C -0.947773 1.454180 2.347964
H 0.059414 1.343210 2.734114
