23
Step displaced_structure_28
N -2.515509 0.840708 1.177063
H -1.567518 0.577511 0.916832
C -2.583478 2.227657 1.678233
H -2.810312 0.175218 1.886406
H -3.099799 0.677736 0.360388
C -1.695913 2.354524 2.905091
H -3.627434 2.451381 1.908167
H -2.262316 2.894267 0.874908
H -2.024772 1.686600 3.705653
H -0.652193 2.133599 2.666597
H -1.737060 3.373539 3.289210
H -1.806796 2.747708 5.147742
C -1.964449 3.105304 4.136004
C -3.260103 3.209281 3.626598
H -4.108867 2.933682 4.242895
C -3.460990 3.631730 2.311442
H -4.465533 3.683592 1.906343
C -2.366454 3.953971 1.507491
H -2.520939 4.258221 0.478372
C -1.070929 3.847722 2.016248
H -0.220132 4.068845 1.381599
C -0.869811 3.421384 3.329815
H 0.137375 3.310413 3.715966
