23
Step displaced_structure_5
C -2.603870 0.856001 1.067139
C -2.676949 2.244619 1.562943
C -1.790562 2.379270 2.789823
H -3.706478 2.523908 1.822766
H -2.354378 2.965198 0.799547
H -2.112706 1.688103 3.576014
H -0.752891 2.128860 2.544803
H -1.794293 3.387006 3.215519
H -2.945204 0.217653 1.862453
H -1.580340 0.644641 0.812905
H -3.242458 0.764652 0.205408
H -2.012679 -3.359980 2.142370
C -2.169008 -3.051052 1.114828
C -3.464710 -2.953527 0.604269
H -4.315635 -3.184397 1.235523
C -3.666276 -2.536827 -0.712616
H -4.673570 -2.443741 -1.103169
C -2.572384 -2.213875 -1.517158
H -2.729414 -1.871142 -2.533841
C -1.276803 -2.313673 -1.007240
H -0.428450 -2.051048 -1.629389
C -1.074991 -2.734269 0.308071
H -0.069724 -2.799485 0.709048
