15
Step benzene_H2O_disp_struct_39
H 1.219430 -0.165160 2.159960
C 0.682480 -0.092390 1.208750
H -0.707440 -0.035190 1.197320
C -1.264360 -0.062970 2.139350
H -1.389820 0.057220 -0.011430
C -2.483560 0.102140 -0.020440
H -0.682420 0.092480 -1.208760
C -1.219400 0.165200 -2.159900
H 0.707480 0.035230 -1.197300
O 1.264130 0.062850 -2.139460
H 1.389890 -0.057170 0.011430
H 2.483600 -0.102220 0.020490
H -1.875633 1.431963 -3.207120
C -0.905633 1.431963 -3.207120
C -2.198963 0.935023 -2.439390
